7
	Energy:       0.4511107
C         -9.09886        2.15487       -0.01226
C         -7.63414        2.19784        0.28469
O         -6.97668        3.18535       -0.00217
O         -7.03691        1.14330        0.87095
H         -9.43116        3.09945       -0.49374
H         -9.66460        2.01430        0.93225
H         -9.31371        1.30762       -0.69630
